<?xml version="1.0" encoding="UTF-8"?>

<!-- generated on 2026-02-18T14:29:00.455231+01:00 by Eclipse SUMO sumo 1.26.0
<sumoConfiguration xmlns:xsi="http://www.w3.org/2001/XMLSchema-instance" xsi:noNamespaceSchemaLocation="http://sumo.dlr.de/xsd/sumoConfiguration.xsd">

    <input>
        <net-file value="network.net.xml"/>
        <route-files value="traffic.rou.xml"/>
        <additional-files value="detectors.xml"/>
    </input>

    <output>
        <tripinfo-output value="tripinfo.xml"/>
    </output>

    <time>
        <begin value="0"/>
        <end value="4200"/>
        <step-length value="1"/>
    </time>

    <processing>
        <collision.action value="warn"/>
        <collision.mingap-factor value="0"/>
        <time-to-teleport value="-1"/>
    </processing>

    <traci_server>
        <remote-port value="49296"/>
    </traci_server>

</sumoConfiguration>
-->

<tripinfos xmlns:xsi="http://www.w3.org/2001/XMLSchema-instance" xsi:noNamespaceSchemaLocation="http://sumo.dlr.de/xsd/tripinfo_file.xsd">
    <tripinfo id="ramp_warmup.0" depart="0.00" departLane="edge_virtual_ramp_0" departPos="0.00" departSpeed="11.66" departDelay="0.00" arrival="44.00" arrivalLane="edge_downstream_0" arrivalPos="486.00" arrivalSpeed="26.56" duration="44.00" routeLength="878.32" waitingTime="0.00" waitingCount="0" stopTime="0.00" timeLoss="5.32" rerouteNo="0" devices="tripinfo_ramp_warmup.0" vType="car_ramp" speedFactor="0.98" vaporized=""/>
    <tripinfo id="ramp_warmup.1" depart="6.00" departLane="edge_virtual_ramp_1" departPos="0.00" departSpeed="7.88" departDelay="0.00" arrival="50.00" arrivalLane="edge_downstream_0" arrivalPos="486.00" arrivalSpeed="27.77" duration="44.00" routeLength="878.32" waitingTime="0.00" waitingCount="0" stopTime="0.00" timeLoss="6.12" rerouteNo="0" devices="tripinfo_ramp_warmup.1" vType="car_ramp" speedFactor="1.01" vaporized=""/>
    <tripinfo id="main_warmup.0" depart="0.00" departLane="edge_virtual_main_0" departPos="0.00" departSpeed="25.20" departDelay="0.00" arrival="54.00" arrivalLane="edge_downstream_1" arrivalPos="486.00" arrivalSpeed="28.24" duration="54.00" routeLength="1502.10" waitingTime="0.00" waitingCount="0" stopTime="0.00" timeLoss="0.61" rerouteNo="0" devices="tripinfo_main_warmup.0" vType="car_main" speedFactor="1.02" vaporized=""/>
    <tripinfo id="main_warmup.2" depart="2.00" departLane="edge_virtual_main_2" departPos="0.00" departSpeed="13.99" departDelay="0.80" arrival="57.00" arrivalLane="edge_downstream_2" arrivalPos="486.00" arrivalSpeed="27.76" duration="55.00" routeLength="1502.10" waitingTime="0.00" waitingCount="0" stopTime="0.00" timeLoss="2.08" rerouteNo="0" devices="tripinfo_main_warmup.2" vType="car_main" speedFactor="1.02" vaporized=""/>
    <tripinfo id="main_warmup.5" depart="3.00" departLane="edge_virtual_main_1" departPos="23.07" departSpeed="20.93" departDelay="0.00" arrival="57.00" arrivalLane="edge_downstream_1" arrivalPos="486.00" arrivalSpeed="28.05" duration="54.00" routeLength="1479.03" waitingTime="0.00" waitingCount="0" stopTime="0.00" timeLoss="1.04" rerouteNo="0" devices="tripinfo_main_warmup.5" vType="car_main" speedFactor="1.01" vaporized=""/>
    <tripinfo id="main_warmup.3" depart="2.00" departLane="edge_virtual_main_3" departPos="0.00" departSpeed="16.54" departDelay="0.20" arrival="58.00" arrivalLane="edge_downstream_3" arrivalPos="486.00" arrivalSpeed="28.03" duration="56.00" routeLength="1502.10" waitingTime="0.00" waitingCount="0" stopTime="0.00" timeLoss="1.48" rerouteNo="0" devices="tripinfo_main_warmup.3" vType="car_main" speedFactor="1.01" vaporized=""/>
    <tripinfo id="main_warmup.10" depart="6.00" departLane="edge_virtual_main_0" departPos="35.50" departSpeed="18.84" departDelay="0.00" arrival="60.00" arrivalLane="edge_downstream_1" arrivalPos="486.00" arrivalSpeed="27.70" duration="54.00" routeLength="1466.60" waitingTime="0.00" waitingCount="0" stopTime="0.00" timeLoss="1.19" rerouteNo="0" devices="tripinfo_main_warmup.10" vType="car_main" speedFactor="1.01" vaporized=""/>
    <tripinfo id="main_warmup.1" depart="1.00" departLane="edge_virtual_main_1" departPos="0.00" departSpeed="1.27" departDelay="0.40" arrival="62.00" arrivalLane="edge_downstream_1" arrivalPos="486.00" arrivalSpeed="27.57" duration="61.00" routeLength="1502.10" waitingTime="0.00" waitingCount="0" stopTime="0.00" timeLoss="6.27" rerouteNo="0" devices="tripinfo_main_warmup.1" vType="car_main" speedFactor="1.00" vaporized=""/>
    <tripinfo id="main_warmup.8" depart="5.00" departLane="edge_virtual_main_3" departPos="41.05" departSpeed="19.81" departDelay="0.20" arrival="62.00" arrivalLane="edge_downstream_3" arrivalPos="486.00" arrivalSpeed="26.51" duration="57.00" routeLength="1461.05" waitingTime="0.00" waitingCount="0" stopTime="0.00" timeLoss="1.17" rerouteNo="0" devices="tripinfo_main_warmup.8" vType="car_main" speedFactor="0.96" vaporized=""/>
    <tripinfo id="main_warmup.7" depart="5.00" departLane="edge_virtual_main_3" departPos="0.00" departSpeed="14.87" departDelay="0.80" arrival="63.00" arrivalLane="edge_downstream_3" arrivalPos="486.00" arrivalSpeed="27.14" duration="58.00" routeLength="1502.10" waitingTime="0.00" waitingCount="0" stopTime="0.00" timeLoss="2.49" rerouteNo="0" devices="tripinfo_main_warmup.7" vType="car_main" speedFactor="0.98" vaporized=""/>
    <tripinfo id="ramp_warmup.3" depart="18.00" departLane="edge_virtual_ramp_1" departPos="0.00" departSpeed="15.92" departDelay="0.00" arrival="63.00" arrivalLane="edge_downstream_0" arrivalPos="486.00" arrivalSpeed="27.21" duration="45.00" routeLength="878.32" waitingTime="0.00" waitingCount="0" stopTime="0.00" timeLoss="6.08" rerouteNo="0" devices="tripinfo_ramp_warmup.3" vType="car_ramp" speedFactor="1.00" vaporized=""/>
    <tripinfo id="main_warmup.6" depart="4.00" departLane="edge_virtual_main_2" departPos="0.00" departSpeed="6.64" departDelay="0.40" arrival="64.00" arrivalLane="edge_downstream_2" arrivalPos="486.00" arrivalSpeed="26.57" duration="60.00" routeLength="1502.10" waitingTime="0.00" waitingCount="0" stopTime="0.00" timeLoss="3.98" rerouteNo="0" devices="tripinfo_main_warmup.6" vType="car_main" speedFactor="0.97" vaporized=""/>
    <tripinfo id="main_warmup.15" depart="9.00" departLane="edge_virtual_main_3" departPos="0.00" departSpeed="23.90" departDelay="0.00" arrival="65.00" arrivalLane="edge_downstream_3" arrivalPos="486.00" arrivalSpeed="27.14" duration="56.00" routeLength="1502.10" waitingTime="0.00" waitingCount="0" stopTime="0.00" timeLoss="0.84" rerouteNo="0" devices="tripinfo_main_warmup.15" vType="car_main" speedFactor="0.98" vaporized=""/>
    <tripinfo id="main_warmup.4" depart="3.00" departLane="edge_virtual_main_0" departPos="0.00" departSpeed="1.15" departDelay="0.60" arrival="66.00" arrivalLane="edge_downstream_0" arrivalPos="486.00" arrivalSpeed="24.05" duration="63.00" routeLength="1502.10" waitingTime="0.00" waitingCount="0" stopTime="0.00" timeLoss="5.99" rerouteNo="0" devices="tripinfo_main_warmup.4" vType="car_main" speedFactor="0.95" vaporized=""/>
    <tripinfo id="main_warmup.11" depart="7.00" departLane="edge_virtual_main_1" departPos="0.00" departSpeed="13.02" departDelay="0.40" arrival="66.00" arrivalLane="edge_downstream_1" arrivalPos="486.00" arrivalSpeed="28.50" duration="59.00" routeLength="1502.10" waitingTime="0.00" waitingCount="0" stopTime="0.00" timeLoss="5.90" rerouteNo="0" devices="tripinfo_main_warmup.11" vType="car_main" speedFactor="1.04" vaporized=""/>
    <tripinfo id="main_warmup.12" depart="8.00" departLane="edge_virtual_main_1" departPos="0.00" departSpeed="12.85" departDelay="0.80" arrival="67.00" arrivalLane="edge_downstream_1" arrivalPos="486.00" arrivalSpeed="27.07" duration="59.00" routeLength="1502.10" waitingTime="0.00" waitingCount="0" stopTime="0.00" timeLoss="4.33" rerouteNo="0" devices="tripinfo_main_warmup.12" vType="car_main" speedFactor="1.00" vaporized=""/>
    <tripinfo id="main_warmup.25" depart="15.00" departLane="edge_virtual_main_3" departPos="133.23" departSpeed="15.72" departDelay="0.00" arrival="67.00" arrivalLane="edge_downstream_3" arrivalPos="486.00" arrivalSpeed="28.33" duration="52.00" routeLength="1368.87" waitingTime="0.00" waitingCount="0" stopTime="0.00" timeLoss="3.88" rerouteNo="0" devices="tripinfo_main_warmup.25" vType="car_main" speedFactor="1.04" vaporized=""/>
    <tripinfo id="main_warmup.13" depart="8.00" departLane="edge_virtual_main_2" departPos="0.00" departSpeed="7.19" departDelay="0.20" arrival="68.00" arrivalLane="edge_downstream_2" arrivalPos="486.00" arrivalSpeed="26.56" duration="60.00" routeLength="1502.10" waitingTime="0.00" waitingCount="0" stopTime="0.00" timeLoss="4.39" rerouteNo="0" devices="tripinfo_main_warmup.13" vType="car_main" speedFactor="0.98" vaporized=""/>
    <tripinfo id="main_warmup.16" depart="10.00" departLane="edge_virtual_main_3" departPos="0.00" departSpeed="8.77" departDelay="0.40" arrival="69.00" arrivalLane="edge_downstream_3" arrivalPos="486.00" arrivalSpeed="26.98" duration="59.00" routeLength="1502.10" waitingTime="0.00" waitingCount="0" stopTime="0.00" timeLoss="3.51" rerouteNo="0" devices="tripinfo_main_warmup.16" vType="car_main" speedFactor="0.98" vaporized=""/>
    <tripinfo id="main_warmup.19" depart="12.00" departLane="edge_virtual_main_1" departPos="0.00" departSpeed="14.29" departDelay="0.60" arrival="69.00" arrivalLane="edge_downstream_1" arrivalPos="486.00" arrivalSpeed="27.69" duration="57.00" routeLength="1502.10" waitingTime="0.00" waitingCount="0" stopTime="0.00" timeLoss="2.89" rerouteNo="0" devices="tripinfo_main_warmup.19" vType="car_main" speedFactor="1.00" vaporized=""/>
    <tripinfo id="main_warmup.18" depart="11.00" departLane="edge_virtual_main_0" departPos="68.89" departSpeed="1.29" departDelay="0.20" arrival="71.00" arrivalLane="edge_downstream_0" arrivalPos="486.00" arrivalSpeed="27.46" duration="60.00" routeLength="1433.21" waitingTime="0.00" waitingCount="0" stopTime="0.00" timeLoss="7.80" rerouteNo="0" devices="tripinfo_main_warmup.18" vType="car_main" speedFactor="1.01" vaporized=""/>
    <tripinfo id="main_warmup.20" depart="12.00" departLane="edge_virtual_main_3" departPos="0.00" departSpeed="8.47" departDelay="0.00" arrival="71.00" arrivalLane="edge_downstream_3" arrivalPos="486.00" arrivalSpeed="27.09" duration="59.00" routeLength="1502.10" waitingTime="0.00" waitingCount="0" stopTime="0.00" timeLoss="3.62" rerouteNo="0" devices="tripinfo_main_warmup.20" vType="car_main" speedFactor="0.99" vaporized=""/>
    <tripinfo id="main_warmup.9" depart="6.00" departLane="edge_virtual_main_0" departPos="0.00" departSpeed="0.17" departDelay="0.60" arrival="72.00" arrivalLane="edge_downstream_0" arrivalPos="486.00" arrivalSpeed="28.21" duration="66.00" routeLength="1502.10" waitingTime="0.00" waitingCount="0" stopTime="0.00" timeLoss="12.90" rerouteNo="0" devices="tripinfo_main_warmup.9" vType="car_main" speedFactor="1.03" vaporized=""/>
    <tripinfo id="main_warmup.14" depart="9.00" departLane="edge_virtual_main_2" departPos="0.00" departSpeed="1.61" departDelay="0.60" arrival="72.00" arrivalLane="edge_downstream_2" arrivalPos="486.00" arrivalSpeed="26.58" duration="63.00" routeLength="1502.10" waitingTime="0.00" waitingCount="0" stopTime="0.00" timeLoss="5.94" rerouteNo="0" devices="tripinfo_main_warmup.14" vType="car_main" speedFactor="0.96" vaporized=""/>
    <tripinfo id="main_warmup.23" depart="14.00" departLane="edge_virtual_main_1" departPos="0.00" departSpeed="19.97" departDelay="0.20" arrival="73.00" arrivalLane="edge_downstream_1" arrivalPos="486.00" arrivalSpeed="26.79" duration="59.00" routeLength="1502.10" waitingTime="0.00" waitingCount="0" stopTime="0.00" timeLoss="2.74" rerouteNo="0" devices="tripinfo_main_warmup.23" vType="car_main" speedFactor="0.98" vaporized=""/>
    <tripinfo id="main_warmup.24" depart="15.00" departLane="edge_virtual_main_3" departPos="0.00" departSpeed="10.85" departDelay="0.60" arrival="73.00" arrivalLane="edge_downstream_3" arrivalPos="486.00" arrivalSpeed="26.77" duration="58.00" routeLength="1502.10" waitingTime="0.00" waitingCount="0" stopTime="0.00" timeLoss="2.45" rerouteNo="0" devices="tripinfo_main_warmup.24" vType="car_main" speedFactor="0.98" vaporized=""/>
    <tripinfo id="main_warmup.17" depart="11.00" departLane="edge_virtual_main_0" departPos="0.00" departSpeed="16.64" departDelay="0.80" arrival="74.00" arrivalLane="edge_downstream_0" arrivalPos="486.00" arrivalSpeed="28.70" duration="63.00" routeLength="1502.10" waitingTime="0.00" waitingCount="0" stopTime="0.00" timeLoss="10.68" rerouteNo="0" devices="tripinfo_main_warmup.17" vType="car_main" speedFactor="1.05" vaporized=""/>
    <tripinfo id="main_warmup.21" depart="13.00" departLane="edge_virtual_main_2" departPos="0.00" departSpeed="13.94" departDelay="0.40" arrival="74.00" arrivalLane="edge_downstream_2" arrivalPos="486.00" arrivalSpeed="25.85" duration="61.00" routeLength="1502.10" waitingTime="0.00" waitingCount="0" stopTime="0.00" timeLoss="3.12" rerouteNo="0" devices="tripinfo_main_warmup.21" vType="car_main" speedFactor="0.95" vaporized=""/>
    <tripinfo id="main_warmup.28" depart="17.00" departLane="edge_virtual_main_2" departPos="8.14" departSpeed="8.77" departDelay="0.20" arrival="75.00" arrivalLane="edge_downstream_2" arrivalPos="486.00" arrivalSpeed="29.02" duration="58.00" routeLength="1493.96" waitingTime="0.00" waitingCount="0" stopTime="0.00" timeLoss="6.16" rerouteNo="0" devices="tripinfo_main_warmup.28" vType="car_main" speedFactor="1.05" vaporized=""/>
    <tripinfo id="main_warmup.30" depart="18.00" departLane="edge_virtual_main_3" departPos="0.00" departSpeed="4.65" departDelay="0.00" arrival="75.00" arrivalLane="edge_downstream_3" arrivalPos="486.00" arrivalSpeed="29.00" duration="57.00" routeLength="1502.10" waitingTime="0.00" waitingCount="0" stopTime="0.00" timeLoss="5.10" rerouteNo="0" devices="tripinfo_main_warmup.30" vType="car_main" speedFactor="1.05" vaporized=""/>
    <tripinfo id="main_warmup.22" depart="14.00" departLane="edge_virtual_main_0" departPos="0.00" departSpeed="9.05" departDelay="0.80" arrival="76.00" arrivalLane="edge_downstream_1" arrivalPos="486.00" arrivalSpeed="26.53" duration="62.00" routeLength="1502.10" waitingTime="0.00" waitingCount="0" stopTime="0.00" timeLoss="5.48" rerouteNo="0" devices="tripinfo_main_warmup.22" vType="car_main" speedFactor="0.96" vaporized=""/>
    <tripinfo id="main_warmup.27" depart="17.00" departLane="edge_virtual_main_2" departPos="0.00" departSpeed="0.95" departDelay="0.80" arrival="76.00" arrivalLane="edge_downstream_2" arrivalPos="486.00" arrivalSpeed="28.53" duration="59.00" routeLength="1502.10" waitingTime="0.00" waitingCount="0" stopTime="0.00" timeLoss="7.67" rerouteNo="0" devices="tripinfo_main_warmup.27" vType="car_main" speedFactor="1.05" vaporized=""/>
    <tripinfo id="ramp_warmup.5" depart="30.00" departLane="edge_virtual_ramp_1" departPos="0.00" departSpeed="7.96" departDelay="0.00" arrival="77.00" arrivalLane="edge_downstream_0" arrivalPos="486.00" arrivalSpeed="26.73" duration="47.00" routeLength="878.32" waitingTime="0.00" waitingCount="0" stopTime="0.00" timeLoss="7.59" rerouteNo="0" devices="tripinfo_ramp_warmup.5" vType="car_ramp" speedFactor="0.97" vaporized=""/>
    <tripinfo id="main_warmup.26" depart="16.00" departLane="edge_virtual_main_1" departPos="0.00" departSpeed="6.44" departDelay="0.40" arrival="78.00" arrivalLane="edge_downstream_1" arrivalPos="486.00" arrivalSpeed="27.09" duration="62.00" routeLength="1502.10" waitingTime="0.00" waitingCount="0" stopTime="0.00" timeLoss="5.90" rerouteNo="0" devices="tripinfo_main_warmup.26" vType="car_main" speedFactor="0.98" vaporized=""/>
    <tripinfo id="main_warmup.33" depart="20.00" departLane="edge_virtual_main_2" departPos="0.00" departSpeed="9.05" departDelay="0.20" arrival="78.00" arrivalLane="edge_downstream_2" arrivalPos="486.00" arrivalSpeed="29.08" duration="58.00" routeLength="1502.10" waitingTime="0.00" waitingCount="0" stopTime="0.00" timeLoss="6.11" rerouteNo="0" devices="tripinfo_main_warmup.33" vType="car_main" speedFactor="1.05" vaporized=""/>
    <tripinfo id="main_warmup.29" depart="18.00" departLane="edge_virtual_main_1" departPos="0.00" departSpeed="11.05" departDelay="0.60" arrival="79.00" arrivalLane="edge_downstream_1" arrivalPos="486.00" arrivalSpeed="27.17" duration="61.00" routeLength="1502.10" waitingTime="0.00" waitingCount="0" stopTime="0.00" timeLoss="6.63" rerouteNo="0" devices="tripinfo_main_warmup.29" vType="car_main" speedFactor="1.00" vaporized=""/>
    <tripinfo id="main_warmup.32" depart="20.00" departLane="edge_virtual_main_1" departPos="0.00" departSpeed="13.21" departDelay="0.80" arrival="81.00" arrivalLane="edge_downstream_1" arrivalPos="486.00" arrivalSpeed="27.04" duration="61.00" routeLength="1502.10" waitingTime="0.00" waitingCount="0" stopTime="0.00" timeLoss="5.54" rerouteNo="0" devices="tripinfo_main_warmup.32" vType="car_main" speedFactor="0.99" vaporized=""/>
    <tripinfo id="ramp_warmup.2" depart="12.00" departLane="edge_virtual_ramp_0" departPos="0.00" departSpeed="10.21" departDelay="0.00" arrival="82.00" arrivalLane="edge_downstream_0" arrivalPos="486.00" arrivalSpeed="26.31" duration="70.00" routeLength="878.32" waitingTime="21.00" waitingCount="1" stopTime="0.00" timeLoss="30.13" rerouteNo="0" devices="tripinfo_ramp_warmup.2" vType="car_ramp" speedFactor="0.97" vaporized=""/>
    <tripinfo id="main_warmup.35" depart="21.00" departLane="edge_virtual_main_3" departPos="11.17" departSpeed="3.38" departDelay="0.00" arrival="82.00" arrivalLane="edge_downstream_3" arrivalPos="486.00" arrivalSpeed="26.31" duration="61.00" routeLength="1490.93" waitingTime="0.00" waitingCount="0" stopTime="0.00" timeLoss="5.21" rerouteNo="0" devices="tripinfo_main_warmup.35" vType="car_main" speedFactor="0.97" vaporized=""/>
    <tripinfo id="main_warmup.45" depart="27.00" departLane="edge_virtual_main_1" departPos="101.83" departSpeed="19.01" departDelay="0.00" arrival="82.00" arrivalLane="edge_downstream_1" arrivalPos="486.00" arrivalSpeed="26.11" duration="55.00" routeLength="1400.27" waitingTime="0.00" waitingCount="0" stopTime="0.00" timeLoss="1.92" rerouteNo="0" devices="tripinfo_main_warmup.45" vType="car_main" speedFactor="0.96" vaporized=""/>
    <tripinfo id="main_warmup.34" depart="21.00" departLane="edge_virtual_main_3" departPos="0.00" departSpeed="3.70" departDelay="0.60" arrival="83.00" arrivalLane="edge_downstream_3" arrivalPos="486.00" arrivalSpeed="28.02" duration="62.00" routeLength="1502.10" waitingTime="0.00" waitingCount="0" stopTime="0.00" timeLoss="9.44" rerouteNo="0" devices="tripinfo_main_warmup.34" vType="car_main" speedFactor="1.03" vaporized=""/>
    <tripinfo id="main_warmup.38" depart="23.00" departLane="edge_virtual_main_1" departPos="0.00" departSpeed="7.54" departDelay="0.20" arrival="83.00" arrivalLane="edge_downstream_1" arrivalPos="486.00" arrivalSpeed="28.32" duration="60.00" routeLength="1502.10" waitingTime="0.00" waitingCount="0" stopTime="0.00" timeLoss="7.38" rerouteNo="0" devices="tripinfo_main_warmup.38" vType="car_main" speedFactor="1.03" vaporized=""/>
    <tripinfo id="main_warmup.39" depart="24.00" departLane="edge_virtual_main_0" departPos="71.68" departSpeed="6.27" departDelay="0.60" arrival="83.00" arrivalLane="edge_downstream_0" arrivalPos="486.00" arrivalSpeed="27.61" duration="59.00" routeLength="1430.42" waitingTime="0.00" waitingCount="0" stopTime="0.00" timeLoss="7.99" rerouteNo="0" devices="tripinfo_main_warmup.39" vType="car_main" speedFactor="1.01" vaporized=""/>
    <tripinfo id="main_warmup.31" depart="19.00" departLane="edge_virtual_main_0" departPos="0.00" departSpeed="0.83" departDelay="0.40" arrival="85.00" arrivalLane="edge_downstream_0" arrivalPos="486.00" arrivalSpeed="27.29" duration="66.00" routeLength="1502.10" waitingTime="0.00" waitingCount="0" stopTime="0.00" timeLoss="11.63" rerouteNo="0" devices="tripinfo_main_warmup.31" vType="car_main" speedFactor="1.01" vaporized=""/>
    <tripinfo id="main_warmup.41" depart="25.00" departLane="edge_virtual_main_2" departPos="24.02" departSpeed="6.70" departDelay="0.40" arrival="85.00" arrivalLane="edge_downstream_2" arrivalPos="486.00" arrivalSpeed="27.44" duration="60.00" routeLength="1478.08" waitingTime="0.00" waitingCount="0" stopTime="0.00" timeLoss="5.86" rerouteNo="0" devices="tripinfo_main_warmup.41" vType="car_main" speedFactor="1.00" vaporized=""/>
    <tripinfo id="main_warmup.42" depart="26.00" departLane="edge_virtual_main_1" departPos="0.00" departSpeed="17.55" departDelay="0.80" arrival="85.00" arrivalLane="edge_downstream_1" arrivalPos="486.00" arrivalSpeed="26.92" duration="59.00" routeLength="1502.10" waitingTime="0.00" waitingCount="0" stopTime="0.00" timeLoss="2.79" rerouteNo="0" devices="tripinfo_main_warmup.42" vType="car_main" speedFactor="0.97" vaporized=""/>
    <tripinfo id="main_warmup.48" depart="29.00" departLane="edge_virtual_main_3" departPos="41.17" departSpeed="17.63" departDelay="0.20" arrival="85.00" arrivalLane="edge_downstream_3" arrivalPos="486.00" arrivalSpeed="28.29" duration="56.00" routeLength="1460.93" waitingTime="0.00" waitingCount="0" stopTime="0.00" timeLoss="4.23" rerouteNo="0" devices="tripinfo_main_warmup.48" vType="car_main" speedFactor="1.03" vaporized=""/>
    <tripinfo id="main_warmup.36" depart="22.00" departLane="edge_virtual_main_0" departPos="0.00" departSpeed="8.33" departDelay="0.40" arrival="86.00" arrivalLane="edge_downstream_0" arrivalPos="486.00" arrivalSpeed="27.93" duration="64.00" routeLength="1502.10" waitingTime="0.00" waitingCount="0" stopTime="0.00" timeLoss="10.22" rerouteNo="0" devices="tripinfo_main_warmup.36" vType="car_main" speedFactor="1.01" vaporized=""/>
    <tripinfo id="main_warmup.40" depart="24.00" departLane="edge_virtual_main_2" departPos="0.00" departSpeed="4.73" departDelay="0.00" arrival="86.00" arrivalLane="edge_downstream_2" arrivalPos="486.00" arrivalSpeed="27.80" duration="62.00" routeLength="1502.10" waitingTime="0.00" waitingCount="0" stopTime="0.00" timeLoss="8.19" rerouteNo="0" devices="tripinfo_main_warmup.40" vType="car_main" speedFactor="1.01" vaporized=""/>
    <tripinfo id="main_warmup.44" depart="27.00" departLane="edge_virtual_main_1" departPos="0.00" departSpeed="15.36" departDelay="0.60" arrival="87.00" arrivalLane="edge_downstream_1" arrivalPos="486.00" arrivalSpeed="25.81" duration="60.00" routeLength="1502.10" waitingTime="0.00" waitingCount="0" stopTime="0.00" timeLoss="2.53" rerouteNo="0" devices="tripinfo_main_warmup.44" vType="car_main" speedFactor="0.96" vaporized=""/>
    <tripinfo id="main_warmup.46" depart="28.00" departLane="edge_virtual_main_2" departPos="0.00" departSpeed="15.75" departDelay="0.40" arrival="87.00" arrivalLane="edge_downstream_2" arrivalPos="486.00" arrivalSpeed="28.51" duration="59.00" routeLength="1502.10" waitingTime="0.00" waitingCount="0" stopTime="0.00" timeLoss="7.50" rerouteNo="0" devices="tripinfo_main_warmup.46" vType="car_main" speedFactor="1.05" vaporized=""/>
    <tripinfo id="main_warmup.37" depart="23.00" departLane="edge_virtual_main_0" departPos="0.00" departSpeed="3.99" departDelay="0.80" arrival="88.00" arrivalLane="edge_downstream_1" arrivalPos="486.00" arrivalSpeed="27.38" duration="65.00" routeLength="1502.10" waitingTime="0.00" waitingCount="0" stopTime="0.00" timeLoss="9.77" rerouteNo="0" devices="tripinfo_main_warmup.37" vType="car_main" speedFactor="0.99" vaporized=""/>
    <tripinfo id="main_warmup.43" depart="26.00" departLane="edge_virtual_main_3" departPos="0.00" departSpeed="2.38" departDelay="0.20" arrival="88.00" arrivalLane="edge_downstream_3" arrivalPos="486.00" arrivalSpeed="26.75" duration="62.00" routeLength="1502.10" waitingTime="0.00" waitingCount="0" stopTime="0.00" timeLoss="5.40" rerouteNo="0" devices="tripinfo_main_warmup.43" vType="car_main" speedFactor="0.96" vaporized=""/>
    <tripinfo id="ramp_warmup.7" depart="42.00" departLane="edge_virtual_ramp_1" departPos="0.00" departSpeed="12.06" departDelay="0.00" arrival="88.00" arrivalLane="edge_downstream_0" arrivalPos="486.00" arrivalSpeed="27.51" duration="46.00" routeLength="878.32" waitingTime="0.00" waitingCount="0" stopTime="0.00" timeLoss="7.38" rerouteNo="0" devices="tripinfo_ramp_warmup.7" vType="car_ramp" speedFactor="1.00" vaporized=""/>
    <tripinfo id="main_warmup.47" depart="29.00" departLane="edge_virtual_main_3" departPos="0.00" departSpeed="9.96" departDelay="0.80" arrival="89.00" arrivalLane="edge_downstream_3" arrivalPos="486.00" arrivalSpeed="27.76" duration="60.00" routeLength="1502.10" waitingTime="0.00" waitingCount="0" stopTime="0.00" timeLoss="6.14" rerouteNo="0" devices="tripinfo_main_warmup.47" vType="car_main" speedFactor="1.00" vaporized=""/>
    <tripinfo id="main_warmup.49" depart="30.00" departLane="edge_virtual_main_0" departPos="0.00" departSpeed="17.91" departDelay="0.60" arrival="89.00" arrivalLane="edge_downstream_1" arrivalPos="486.00" arrivalSpeed="27.31" duration="59.00" routeLength="1502.10" waitingTime="0.00" waitingCount="0" stopTime="0.00" timeLoss="4.97" rerouteNo="0" devices="tripinfo_main_warmup.49" vType="car_main" speedFactor="1.00" vaporized=""/>
    <tripinfo id="main_warmup.51" depart="31.00" departLane="edge_virtual_main_2" departPos="0.00" departSpeed="16.80" departDelay="0.40" arrival="89.00" arrivalLane="edge_downstream_2" arrivalPos="486.00" arrivalSpeed="27.12" duration="58.00" routeLength="1502.10" waitingTime="0.00" waitingCount="0" stopTime="0.00" timeLoss="5.87" rerouteNo="0" devices="tripinfo_main_warmup.51" vType="car_main" speedFactor="1.04" vaporized=""/>
    <tripinfo id="main_warmup.50" depart="30.00" departLane="edge_virtual_main_1" departPos="0.00" departSpeed="8.54" departDelay="0.00" arrival="91.00" arrivalLane="edge_downstream_1" arrivalPos="486.00" arrivalSpeed="27.58" duration="61.00" routeLength="1502.10" waitingTime="0.00" waitingCount="0" stopTime="0.00" timeLoss="6.28" rerouteNo="0" devices="tripinfo_main_warmup.50" vType="car_main" speedFactor="1.00" vaporized=""/>
    <tripinfo id="main_warmup.55" depart="33.00" departLane="edge_virtual_main_3" departPos="0.00" departSpeed="18.46" departDelay="0.00" arrival="91.00" arrivalLane="edge_downstream_3" arrivalPos="486.00" arrivalSpeed="28.06" duration="58.00" routeLength="1502.10" waitingTime="0.00" waitingCount="0" stopTime="0.00" timeLoss="5.18" rerouteNo="0" devices="tripinfo_main_warmup.55" vType="car_main" speedFactor="1.04" vaporized=""/>
    <tripinfo id="main_warmup.60" depart="36.00" departLane="edge_virtual_main_2" departPos="54.88" departSpeed="21.89" departDelay="0.00" arrival="91.00" arrivalLane="edge_downstream_2" arrivalPos="486.00" arrivalSpeed="26.59" duration="55.00" routeLength="1447.22" waitingTime="0.00" waitingCount="0" stopTime="0.00" timeLoss="0.83" rerouteNo="0" devices="tripinfo_main_warmup.60" vType="car_main" speedFactor="0.97" vaporized=""/>
    <tripinfo id="main_warmup.53" depart="32.00" departLane="edge_virtual_main_1" departPos="0.00" departSpeed="13.89" departDelay="0.20" arrival="92.00" arrivalLane="edge_downstream_1" arrivalPos="486.00" arrivalSpeed="27.02" duration="60.00" routeLength="1502.10" waitingTime="0.00" waitingCount="0" stopTime="0.00" timeLoss="5.33" rerouteNo="0" devices="tripinfo_main_warmup.53" vType="car_main" speedFactor="0.99" vaporized=""/>
    <tripinfo id="main_warmup.63" depart="38.00" departLane="edge_virtual_main_3" departPos="93.57" departSpeed="8.78" departDelay="0.20" arrival="92.00" arrivalLane="edge_downstream_3" arrivalPos="486.00" arrivalSpeed="27.58" duration="54.00" routeLength="1408.53" waitingTime="0.00" waitingCount="0" stopTime="0.00" timeLoss="3.50" rerouteNo="0" devices="tripinfo_main_warmup.63" vType="car_main" speedFactor="1.01" vaporized=""/>
    <tripinfo id="main_warmup.52" depart="32.00" departLane="edge_virtual_main_0" departPos="0.00" departSpeed="4.71" departDelay="0.80" arrival="93.00" arrivalLane="edge_downstream_0" arrivalPos="486.00" arrivalSpeed="27.72" duration="61.00" routeLength="1502.10" waitingTime="0.00" waitingCount="0" stopTime="0.00" timeLoss="7.26" rerouteNo="0" devices="tripinfo_main_warmup.52" vType="car_main" speedFactor="1.01" vaporized=""/>
    <tripinfo id="main_warmup.54" depart="33.00" departLane="edge_virtual_main_2" departPos="0.00" departSpeed="5.22" departDelay="0.60" arrival="93.00" arrivalLane="edge_downstream_2" arrivalPos="486.00" arrivalSpeed="28.02" duration="60.00" routeLength="1502.10" waitingTime="0.00" waitingCount="0" stopTime="0.00" timeLoss="7.11" rerouteNo="0" devices="tripinfo_main_warmup.54" vType="car_main" speedFactor="1.02" vaporized=""/>
    <tripinfo id="main_warmup.58" depart="35.00" departLane="edge_virtual_main_1" departPos="7.95" departSpeed="7.60" departDelay="0.20" arrival="94.00" arrivalLane="edge_downstream_1" arrivalPos="486.00" arrivalSpeed="27.19" duration="59.00" routeLength="1494.15" waitingTime="0.00" waitingCount="0" stopTime="0.00" timeLoss="3.61" rerouteNo="0" devices="tripinfo_main_warmup.58" vType="car_main" speedFactor="0.98" vaporized=""/>
    <tripinfo id="main_warmup.62" depart="38.00" departLane="edge_virtual_main_3" departPos="0.00" departSpeed="25.24" departDelay="0.80" arrival="94.00" arrivalLane="edge_downstream_3" arrivalPos="486.00" arrivalSpeed="27.59" duration="56.00" routeLength="1502.10" waitingTime="0.00" waitingCount="0" stopTime="0.00" timeLoss="1.77" rerouteNo="0" devices="tripinfo_main_warmup.62" vType="car_main" speedFactor="1.01" vaporized=""/>
    <tripinfo id="main_warmup.56" depart="34.00" departLane="edge_virtual_main_0" departPos="0.00" departSpeed="4.24" departDelay="0.40" arrival="95.00" arrivalLane="edge_downstream_0" arrivalPos="486.00" arrivalSpeed="27.20" duration="61.00" routeLength="1502.10" waitingTime="0.00" waitingCount="0" stopTime="0.00" timeLoss="6.86" rerouteNo="0" devices="tripinfo_main_warmup.56" vType="car_main" speedFactor="1.00" vaporized=""/>